
     Program PWSCF v.7.0 starts on 28Mar2022 at  5:49:22 

     This program is part of the open-source Quantum ESPRESSO suite
     for quantum simulation of materials; please cite
         "P. Giannozzi et al., J. Phys.:Condens. Matter 21 395502 (2009);
         "P. Giannozzi et al., J. Phys.:Condens. Matter 29 465901 (2017);
         "P. Giannozzi et al., J. Chem. Phys. 152 154105 (2020);
          URL http://www.quantum-espresso.org", 
     in publications or presentations arising from this work. More details at
     http://www.quantum-espresso.org/quote

     Parallel version (MPI), running on     8 processors

     MPI processes distributed on     1 nodes
     R & G space division:  proc/nbgrp/npool/nimage =       8
     31200 MiB available memory on the printing compute node when the environment starts

     Waiting for input...
     Reading input from standard input

     Current dimensions of program PWSCF are:
     Max number of different atomic species (ntypx) = 10
     Max number of k-points (npk) =  40000
     Max angular momentum in pseudopotentials (lmaxx) =  4
     file O.pbe-n-kjpaw_psl.1.0.0.UPF: wavefunction(s)  2S 2P renormalized
     file H.pbe-kjpaw_psl.1.0.0.UPF: wavefunction(s)  1S renormalized

     gamma-point specific algorithms are used

     Subspace diagonalization in iterative solution of the eigenvalue problem:
     a serial algorithm will be used


     Parallelization info
     --------------------
     sticks:   dense  smooth     PW     G-vecs:    dense   smooth      PW
     Min        1596    1596    398               136062   136062   16983
     Max        1600    1600    401               136068   136068   16986
     Sum       12785   12785   3189              1088527  1088527  135883

     Using Slab Decomposition



     bravais-lattice index     =            0
     lattice parameter (alat)  =      28.3459  a.u.
     unit-cell volume          =   22775.6289 (a.u.)^3
     number of atoms/cell      =            3
     number of atomic types    =            2
     number of electrons       =         8.00
     number of Kohn-Sham states=            4
     kinetic-energy cutoff     =      50.0000  Ry
     charge density cutoff     =     200.0000  Ry
     scf convergence threshold =      1.0E-06
     mixing beta               =       0.7000
     number of iterations used =            8  plain     mixing
     energy convergence thresh.=      1.0E-04
     force convergence thresh. =      1.0E-03
     Exchange-correlation= SLA  PW   PBX  PBC
                           (   1   4   3   4   0   0   0)
     nstep                     =           50


     celldm(1)=  28.345892  celldm(2)=   0.000000  celldm(3)=   0.000000
     celldm(4)=   0.000000  celldm(5)=   0.000000  celldm(6)=   0.000000

     crystal axes: (cart. coord. in units of alat)
               a(1) = (   1.000000   0.000000   0.000000 )  
               a(2) = (   0.000000   1.000000   0.000000 )  
               a(3) = (   0.000000   0.000000   1.000000 )  

     reciprocal axes: (cart. coord. in units 2 pi/alat)
               b(1) = (  1.000000  0.000000  0.000000 )  
               b(2) = (  0.000000  1.000000  0.000000 )  
               b(3) = (  0.000000  0.000000  1.000000 )  


     PseudoPot. # 1 for O  read from file:
     /home/ayong/pslibrary-master/pbe/PSEUDOPOTENTIALS/O.pbe-n-kjpaw_psl.1.0.0.UPF
     MD5 check sum: b84184589742ca07842c5a33f0ad97fd
     Pseudo is Projector augmented-wave + core cor, Zval =  6.0
     Generated using 'atomic' code by A. Dal Corso  v.7.0
     Shape of augmentation charge: PSQ
     Using radial grid of 1095 points,  4 beta functions with: 
                l(1) =   0
                l(2) =   0
                l(3) =   1
                l(4) =   1
     Q(r) pseudized with 0 coefficients 


     PseudoPot. # 2 for H  read from file:
     /home/ayong/pslibrary-master/pbe/PSEUDOPOTENTIALS/H.pbe-kjpaw_psl.1.0.0.UPF
     MD5 check sum: 4020531e9f01aa96a9d1b0dd247bd5cd
     Pseudo is Projector augmented-wave, Zval =  1.0
     Generated using 'atomic' code by A. Dal Corso  v.7.0
     Shape of augmentation charge: PSQ
     Using radial grid of  929 points,  2 beta functions with: 
                l(1) =   0
                l(2) =   0
     Q(r) pseudized with 0 coefficients 


     atomic species   valence    mass     pseudopotential
        O              6.00    15.99900     O ( 1.00)
        H              1.00     1.00784     H ( 1.00)

     No symmetry found



   Cartesian axes

     site n.     atom                  positions (alat units)
         1           O   tau(   1) = (   0.0615800   0.0624400   0.0684800  )
         2           H   tau(   2) = (   0.0429933   0.0347667   0.0131400  )
         3           H   tau(   3) = (   0.1261067   0.0610533   0.0657067  )

     number of k points=     1
                       cart. coord. in units 2pi/alat
        k(    1) = (   0.0000000   0.0000000   0.0000000), wk =   2.0000000

     Dense  grid:   544264 G-vectors     FFT dimensions: ( 128, 128, 128)

     Estimated max dynamical RAM per process >     100.40 MB

     Estimated total dynamical RAM >     803.19 MB

     Initial potential from superposition of free atoms

     starting charge       8.0000, renormalised to       8.0000

     negative rho (up, down):  1.350E-02 0.000E+00
     Starting wfcs are    6 randomized atomic wfcs
     Checking if some PAW data can be deallocated... 

     total cpu time spent up to now is        1.3 secs

     per-process dynamical memory:    51.2 Mb

     Self-consistent Calculation

     iteration #  1     ecut=    50.00 Ry     beta= 0.70
     Davidson diagonalization with overlap
     ethr =  1.00E-02,  avg # of iterations =  3.0

     negative rho (up, down):  1.660E-02 0.000E+00

     total cpu time spent up to now is        2.1 secs

     total energy              =     -43.80652336 Ry
     estimated scf accuracy    <       0.45082167 Ry

     iteration #  2     ecut=    50.00 Ry     beta= 0.70
     Davidson diagonalization with overlap
     ethr =  5.64E-03,  avg # of iterations =  5.0

     negative rho (up, down):  1.499E-02 0.000E+00

     total cpu time spent up to now is        2.9 secs

     total energy              =     -43.97824287 Ry
     estimated scf accuracy    <       0.18805177 Ry

     iteration #  3     ecut=    50.00 Ry     beta= 0.70
     Davidson diagonalization with overlap
     ethr =  2.35E-03,  avg # of iterations =  4.0

     negative rho (up, down):  1.463E-02 0.000E+00

     total cpu time spent up to now is        3.7 secs

     total energy              =     -43.97634391 Ry
     estimated scf accuracy    <       0.08044332 Ry

     iteration #  4     ecut=    50.00 Ry     beta= 0.70
     Davidson diagonalization with overlap
     ethr =  1.01E-03,  avg # of iterations =  5.0

     negative rho (up, down):  1.624E-02 0.000E+00

     total cpu time spent up to now is        4.5 secs

     total energy              =     -44.02700509 Ry
     estimated scf accuracy    <       0.02394638 Ry

     iteration #  5     ecut=    50.00 Ry     beta= 0.70
     Davidson diagonalization with overlap
     ethr =  2.99E-04,  avg # of iterations =  6.0

     negative rho (up, down):  1.622E-02 0.000E+00

     total cpu time spent up to now is        5.4 secs

     total energy              =     -44.03807887 Ry
     estimated scf accuracy    <       0.01390190 Ry

     iteration #  6     ecut=    50.00 Ry     beta= 0.70
     Davidson diagonalization with overlap
     ethr =  1.74E-04,  avg # of iterations =  1.0

     negative rho (up, down):  1.587E-02 0.000E+00

     total cpu time spent up to now is        6.1 secs

     total energy              =     -44.03377510 Ry
     estimated scf accuracy    <       0.00796474 Ry

     iteration #  7     ecut=    50.00 Ry     beta= 0.70
     Davidson diagonalization with overlap
     ethr =  9.96E-05,  avg # of iterations =  5.0

     negative rho (up, down):  1.584E-02 0.000E+00

     total cpu time spent up to now is        7.0 secs

     total energy              =     -44.03724432 Ry
     estimated scf accuracy    <       0.00028716 Ry

     iteration #  8     ecut=    50.00 Ry     beta= 0.70
     Davidson diagonalization with overlap
     ethr =  3.59E-06,  avg # of iterations =  6.0

     negative rho (up, down):  1.584E-02 0.000E+00

     total cpu time spent up to now is        7.8 secs

     total energy              =     -44.03849001 Ry
     estimated scf accuracy    <       0.00196759 Ry

     iteration #  9     ecut=    50.00 Ry     beta= 0.70
     Davidson diagonalization with overlap
     ethr =  3.59E-06,  avg # of iterations =  1.0

     negative rho (up, down):  1.584E-02 0.000E+00

     total cpu time spent up to now is        8.6 secs

     total energy              =     -44.03818537 Ry
     estimated scf accuracy    <       0.00192018 Ry

     iteration # 10     ecut=    50.00 Ry     beta= 0.70
     Davidson diagonalization with overlap
     ethr =  3.59E-06,  avg # of iterations =  1.0

     negative rho (up, down):  1.589E-02 0.000E+00

     total cpu time spent up to now is        9.4 secs

     total energy              =     -44.03757446 Ry
     estimated scf accuracy    <       0.00130066 Ry

     iteration # 11     ecut=    50.00 Ry     beta= 0.70
     Davidson diagonalization with overlap
     ethr =  3.59E-06,  avg # of iterations =  7.0

     negative rho (up, down):  1.592E-02 0.000E+00

     total cpu time spent up to now is       10.3 secs

     total energy              =     -44.03800423 Ry
     estimated scf accuracy    <       0.00026582 Ry

     iteration # 12     ecut=    50.00 Ry     beta= 0.70
     Davidson diagonalization with overlap
     ethr =  3.32E-06,  avg # of iterations =  1.0

     negative rho (up, down):  1.594E-02 0.000E+00

     total cpu time spent up to now is       11.1 secs

     total energy              =     -44.03800179 Ry
     estimated scf accuracy    <       0.00023713 Ry

     iteration # 13     ecut=    50.00 Ry     beta= 0.70
     Davidson diagonalization with overlap
     ethr =  2.96E-06,  avg # of iterations =  2.0

     negative rho (up, down):  1.594E-02 0.000E+00

     total cpu time spent up to now is       11.9 secs

     total energy              =     -44.03799106 Ry
     estimated scf accuracy    <       0.00027208 Ry

     iteration # 14     ecut=    50.00 Ry     beta= 0.70
     Davidson diagonalization with overlap
     ethr =  2.96E-06,  avg # of iterations =  1.0

     negative rho (up, down):  1.593E-02 0.000E+00

     total cpu time spent up to now is       12.6 secs

     total energy              =     -44.03796980 Ry
     estimated scf accuracy    <       0.00022394 Ry

     iteration # 15     ecut=    50.00 Ry     beta= 0.70
     Davidson diagonalization with overlap
     ethr =  2.80E-06,  avg # of iterations =  1.0

     negative rho (up, down):  1.593E-02 0.000E+00

     total cpu time spent up to now is       13.4 secs

     total energy              =     -44.03793801 Ry
     estimated scf accuracy    <       0.00017399 Ry

     iteration # 16     ecut=    50.00 Ry     beta= 0.70
     Davidson diagonalization with overlap
     ethr =  2.17E-06,  avg # of iterations =  1.0

     negative rho (up, down):  1.591E-02 0.000E+00

     total cpu time spent up to now is       14.2 secs

     total energy              =     -44.03788617 Ry
     estimated scf accuracy    <       0.00008559 Ry

     iteration # 17     ecut=    50.00 Ry     beta= 0.70
     Davidson diagonalization with overlap
     ethr =  1.07E-06,  avg # of iterations =  6.0

     negative rho (up, down):  1.591E-02 0.000E+00

     total cpu time spent up to now is       15.1 secs

     total energy              =     -44.03794190 Ry
     estimated scf accuracy    <       0.00003988 Ry

     iteration # 18     ecut=    50.00 Ry     beta= 0.70
     Davidson diagonalization with overlap
     ethr =  4.98E-07,  avg # of iterations =  4.0

     negative rho (up, down):  1.592E-02 0.000E+00

     total cpu time spent up to now is       15.9 secs

     total energy              =     -44.03794807 Ry
     estimated scf accuracy    <       0.00012647 Ry

     iteration # 19     ecut=    50.00 Ry     beta= 0.70
     Davidson diagonalization with overlap
     ethr =  4.98E-07,  avg # of iterations =  1.0

     negative rho (up, down):  1.592E-02 0.000E+00

     total cpu time spent up to now is       16.7 secs

     total energy              =     -44.03794269 Ry
     estimated scf accuracy    <       0.00009266 Ry

     iteration # 20     ecut=    50.00 Ry     beta= 0.70
     Davidson diagonalization with overlap
     ethr =  4.98E-07,  avg # of iterations =  1.0

     negative rho (up, down):  1.593E-02 0.000E+00

     total cpu time spent up to now is       17.4 secs

     total energy              =     -44.03791083 Ry
     estimated scf accuracy    <       0.00006515 Ry

     iteration # 21     ecut=    50.00 Ry     beta= 0.70
     Davidson diagonalization with overlap
     ethr =  4.98E-07,  avg # of iterations =  3.0

     negative rho (up, down):  1.593E-02 0.000E+00

     total cpu time spent up to now is       18.2 secs

     total energy              =     -44.03791830 Ry
     estimated scf accuracy    <       0.00000458 Ry

     iteration # 22     ecut=    50.00 Ry     beta= 0.70
     Davidson diagonalization with overlap
     ethr =  5.73E-08,  avg # of iterations =  8.0

     negative rho (up, down):  1.592E-02 0.000E+00

     total cpu time spent up to now is       19.3 secs

     total energy              =     -44.03793263 Ry
     estimated scf accuracy    <       0.00002771 Ry

     iteration # 23     ecut=    50.00 Ry     beta= 0.70
     Davidson diagonalization with overlap
     ethr =  5.73E-08,  avg # of iterations =  2.0

     negative rho (up, down):  1.592E-02 0.000E+00

     total cpu time spent up to now is       20.1 secs

     total energy              =     -44.03793315 Ry
     estimated scf accuracy    <       0.00001480 Ry

     iteration # 24     ecut=    50.00 Ry     beta= 0.70
     Davidson diagonalization with overlap
     ethr =  5.73E-08,  avg # of iterations =  1.0

     negative rho (up, down):  1.592E-02 0.000E+00

     total cpu time spent up to now is       20.9 secs

     total energy              =     -44.03793265 Ry
     estimated scf accuracy    <       0.00001335 Ry

     iteration # 25     ecut=    50.00 Ry     beta= 0.70
     Davidson diagonalization with overlap
     ethr =  5.73E-08,  avg # of iterations =  1.0

     negative rho (up, down):  1.591E-02 0.000E+00

     total cpu time spent up to now is       21.7 secs

     total energy              =     -44.03792994 Ry
     estimated scf accuracy    <       0.00001118 Ry

     iteration # 26     ecut=    50.00 Ry     beta= 0.70
     Davidson diagonalization with overlap
     ethr =  5.73E-08,  avg # of iterations =  1.0

     negative rho (up, down):  1.591E-02 0.000E+00

     total cpu time spent up to now is       22.5 secs

     total energy              =     -44.03792766 Ry
     estimated scf accuracy    <       0.00000552 Ry

     iteration # 27     ecut=    50.00 Ry     beta= 0.70
     Davidson diagonalization with overlap
     ethr =  5.73E-08,  avg # of iterations =  5.0

     negative rho (up, down):  1.591E-02 0.000E+00

     total cpu time spent up to now is       23.3 secs

     total energy              =     -44.03793144 Ry
     estimated scf accuracy    <       0.00000132 Ry

     iteration # 28     ecut=    50.00 Ry     beta= 0.70
     Davidson diagonalization with overlap
     ethr =  1.65E-08,  avg # of iterations =  1.0

     negative rho (up, down):  1.591E-02 0.000E+00

     total cpu time spent up to now is       24.1 secs

     total energy              =     -44.03793146 Ry
     estimated scf accuracy    <       0.00000201 Ry

     iteration # 29     ecut=    50.00 Ry     beta= 0.70
     Davidson diagonalization with overlap
     ethr =  1.65E-08,  avg # of iterations =  1.0

     negative rho (up, down):  1.591E-02 0.000E+00

     total cpu time spent up to now is       24.9 secs

     total energy              =     -44.03793138 Ry
     estimated scf accuracy    <       0.00000194 Ry

     iteration # 30     ecut=    50.00 Ry     beta= 0.70
     Davidson diagonalization with overlap
     ethr =  1.65E-08,  avg # of iterations =  1.0

     negative rho (up, down):  1.591E-02 0.000E+00

     total cpu time spent up to now is       25.6 secs

     total energy              =     -44.03793099 Ry
     estimated scf accuracy    <       0.00000198 Ry

     iteration # 31     ecut=    50.00 Ry     beta= 0.70
     Davidson diagonalization with overlap
     ethr =  1.65E-08,  avg # of iterations =  1.0

     negative rho (up, down):  1.591E-02 0.000E+00

     total cpu time spent up to now is       26.4 secs

     total energy              =     -44.03793029 Ry
     estimated scf accuracy    <       0.00000128 Ry

     iteration # 32     ecut=    50.00 Ry     beta= 0.70
     Davidson diagonalization with overlap
     ethr =  1.60E-08,  avg # of iterations =  2.0

     negative rho (up, down):  1.592E-02 0.000E+00

     total cpu time spent up to now is       27.1 secs

     End of self-consistent calculation

          k = 0.0000 0.0000 0.0000 ( 67942 PWs)   bands (ev):

   -25.2824 -13.0397  -9.2855  -7.1921

     highest occupied level (ev):    -7.1921

!    total energy              =     -44.03793041 Ry

     total all-electron energy =      -152.884812 Ry
     estimated scf accuracy    <       0.00000013 Ry

     The total energy is the sum of the following terms:
     one-electron contribution =     -69.31018958 Ry
     hartree contribution      =      36.31387002 Ry
     xc contribution           =      -8.85630906 Ry
     ewald contribution        =       7.40191252 Ry
     one-center paw contrib.   =      -9.58721432 Ry

     convergence has been achieved in  32 iterations

     negative rho (up, down):  1.592E-02 0.000E+00

     Forces acting on atoms (cartesian axes, Ry/au):

     atom    1 type  1   force =    -0.00220347    0.00140736    0.00245027
     atom    2 type  2   force =    -0.00257581   -0.00184985   -0.00351049
     atom    3 type  2   force =     0.00477928    0.00044249    0.00106022

     Total force =     0.007706     Total SCF correction =     0.000521

     BFGS Geometry Optimization
     Energy error            =      0.0E+00 Ry
     Gradient error          =      4.8E-03 Ry/Bohr

     number of scf cycles    =   1
     number of bfgs steps    =   0

     energy             new  =     -44.0379304150 Ry

     new trust radius        =       0.0049154187 bohr
     new conv_thr            =       0.0000010000 Ry


ATOMIC_POSITIONS (angstrom)
O             0.9225339735        0.9373447413        1.0284966286
H             0.6435369424        0.5205211016        0.1952423285
H             1.8941290840        0.9160341571        0.9861610429



     Writing config-only to output data dir ./pwscf.save/
     NEW-OLD atomic charge density approx. for the potential

     negative rho (up, down):  1.588E-02 0.000E+00

     total cpu time spent up to now is       28.7 secs

     per-process dynamical memory:    51.2 Mb

     Self-consistent Calculation

     iteration #  1     ecut=    50.00 Ry     beta= 0.70
     Davidson diagonalization with overlap
     ethr =  1.00E-06,  avg # of iterations =  3.0

     negative rho (up, down):  1.586E-02 0.000E+00

     total cpu time spent up to now is       29.5 secs

     total energy              =     -44.03792507 Ry
     estimated scf accuracy    <       0.00003855 Ry

     iteration #  2     ecut=    50.00 Ry     beta= 0.70
     Davidson diagonalization with overlap
     ethr =  4.82E-07,  avg # of iterations =  5.0

     negative rho (up, down):  1.588E-02 0.000E+00

     total cpu time spent up to now is       30.4 secs

     total energy              =     -44.03794067 Ry
     estimated scf accuracy    <       0.00001128 Ry

     iteration #  3     ecut=    50.00 Ry     beta= 0.70
     Davidson diagonalization with overlap
     ethr =  1.41E-07,  avg # of iterations =  4.0

     negative rho (up, down):  1.589E-02 0.000E+00

     total cpu time spent up to now is       31.2 secs

     total energy              =     -44.03794111 Ry
     estimated scf accuracy    <       0.00000417 Ry

     iteration #  4     ecut=    50.00 Ry     beta= 0.70
     Davidson diagonalization with overlap
     ethr =  5.22E-08,  avg # of iterations =  2.0

     negative rho (up, down):  1.589E-02 0.000E+00

     total cpu time spent up to now is       31.9 secs

     End of self-consistent calculation

          k = 0.0000 0.0000 0.0000 ( 67942 PWs)   bands (ev):

   -25.2385 -12.9979  -9.2806  -7.1798

     highest occupied level (ev):    -7.1798

!    total energy              =     -44.03794390 Ry

     total all-electron energy =      -152.884825 Ry
     estimated scf accuracy    <       0.00000049 Ry

     The total energy is the sum of the following terms:
     one-electron contribution =     -69.22216460 Ry
     hartree contribution      =      36.26900058 Ry
     xc contribution           =      -8.84868211 Ry
     ewald contribution        =       7.35111638 Ry
     one-center paw contrib.   =      -9.58721414 Ry

     convergence has been achieved in   4 iterations

     negative rho (up, down):  1.589E-02 0.000E+00

     Forces acting on atoms (cartesian axes, Ry/au):

     atom    1 type  1   force =     0.00263361   -0.00181421   -0.00334355
     atom    2 type  2   force =    -0.00054045    0.00108783    0.00212592
     atom    3 type  2   force =    -0.00209316    0.00072637    0.00121763

     Total force =     0.005813     Total SCF correction =     0.000517
     Energy error            =      1.3E-05 Ry
     Gradient error          =      3.3E-03 Ry/Bohr

     number of scf cycles    =   2
     number of bfgs steps    =   1

     energy             old  =     -44.0379304150 Ry
     energy             new  =     -44.0379438951 Ry

     CASE: energy            _new < energy            _old

     new trust radius        =       0.0025895730 bohr
     new conv_thr            =       0.0000000100 Ry


ATOMIC_POSITIONS (angstrom)
O             0.9233044566        0.9368077054        1.0274987368
H             0.6432069131        0.5207860037        0.1957659583
H             1.8936886303        0.9163062909        0.9866353050



     Writing config-only to output data dir ./pwscf.save/
     NEW-OLD atomic charge density approx. for the potential

     negative rho (up, down):  1.591E-02 0.000E+00

     total cpu time spent up to now is       33.5 secs

     per-process dynamical memory:    51.2 Mb

     Self-consistent Calculation

     iteration #  1     ecut=    50.00 Ry     beta= 0.70
     Davidson diagonalization with overlap
     ethr =  1.00E-06,  avg # of iterations =  3.0

     Threshold (ethr) on eigenvalues was too large:
     Diagonalizing with lowered threshold

     Davidson diagonalization with overlap
     ethr =  7.00E-08,  avg # of iterations =  4.0

     negative rho (up, down):  1.591E-02 0.000E+00

     total cpu time spent up to now is       34.6 secs

     total energy              =     -44.03795319 Ry
     estimated scf accuracy    <       0.00000662 Ry

     iteration #  2     ecut=    50.00 Ry     beta= 0.70
     Davidson diagonalization with overlap
     ethr =  8.27E-08,  avg # of iterations =  5.0

     negative rho (up, down):  1.590E-02 0.000E+00

     total cpu time spent up to now is       35.5 secs

     total energy              =     -44.03795530 Ry
     estimated scf accuracy    <       0.00000229 Ry

     iteration #  3     ecut=    50.00 Ry     beta= 0.70
     Davidson diagonalization with overlap
     ethr =  2.86E-08,  avg # of iterations =  4.0

     negative rho (up, down):  1.590E-02 0.000E+00

     total cpu time spent up to now is       36.3 secs

     total energy              =     -44.03795549 Ry
     estimated scf accuracy    <       0.00000055 Ry

     iteration #  4     ecut=    50.00 Ry     beta= 0.70
     Davidson diagonalization with overlap
     ethr =  6.92E-09,  avg # of iterations =  5.0

     negative rho (up, down):  1.590E-02 0.000E+00

     total cpu time spent up to now is       37.1 secs

     total energy              =     -44.03795597 Ry
     estimated scf accuracy    <       0.00000029 Ry

     iteration #  5     ecut=    50.00 Ry     beta= 0.70
     Davidson diagonalization with overlap
     ethr =  3.66E-09,  avg # of iterations =  1.0

     negative rho (up, down):  1.590E-02 0.000E+00

     total cpu time spent up to now is       37.9 secs

     total energy              =     -44.03795597 Ry
     estimated scf accuracy    <       0.00000004 Ry

     iteration #  6     ecut=    50.00 Ry     beta= 0.70
     Davidson diagonalization with overlap
     ethr =  4.54E-10,  avg # of iterations =  5.0

     negative rho (up, down):  1.590E-02 0.000E+00

     total cpu time spent up to now is       38.8 secs

     total energy              =     -44.03795619 Ry
     estimated scf accuracy    <       0.00000057 Ry

     iteration #  7     ecut=    50.00 Ry     beta= 0.70
     Davidson diagonalization with overlap
     ethr =  4.54E-10,  avg # of iterations =  1.0

     negative rho (up, down):  1.590E-02 0.000E+00

     total cpu time spent up to now is       39.5 secs

     total energy              =     -44.03795602 Ry
     estimated scf accuracy    <       0.00000053 Ry

     iteration #  8     ecut=    50.00 Ry     beta= 0.70
     Davidson diagonalization with overlap
     ethr =  4.54E-10,  avg # of iterations =  8.0

     negative rho (up, down):  1.590E-02 0.000E+00

     total cpu time spent up to now is       40.5 secs

     total energy              =     -44.03795604 Ry
     estimated scf accuracy    <       0.00000009 Ry

     iteration #  9     ecut=    50.00 Ry     beta= 0.70
     Davidson diagonalization with overlap
     ethr =  4.54E-10,  avg # of iterations =  2.0

     negative rho (up, down):  1.590E-02 0.000E+00

     total cpu time spent up to now is       41.3 secs

     total energy              =     -44.03795603 Ry
     estimated scf accuracy    <       0.00000005 Ry

     iteration # 10     ecut=    50.00 Ry     beta= 0.70
     Davidson diagonalization with overlap
     ethr =  4.54E-10,  avg # of iterations =  2.0

     negative rho (up, down):  1.590E-02 0.000E+00

     total cpu time spent up to now is       42.0 secs

     End of self-consistent calculation

          k = 0.0000 0.0000 0.0000 ( 67942 PWs)   bands (ev):

   -25.2568 -13.0246  -9.2795  -7.1890

     highest occupied level (ev):    -7.1890

!    total energy              =     -44.03795604 Ry

     total all-electron energy =      -152.884837 Ry
     estimated scf accuracy    <          7.7E-09 Ry

     The total energy is the sum of the following terms:
     one-electron contribution =     -69.25201666 Ry
     hartree contribution      =      36.28371577 Ry
     xc contribution           =      -8.85121730 Ry
     ewald contribution        =       7.36875867 Ry
     one-center paw contrib.   =      -9.58719652 Ry

     convergence has been achieved in  10 iterations

     negative rho (up, down):  1.590E-02 0.000E+00

     Forces acting on atoms (cartesian axes, Ry/au):

     atom    1 type  1   force =     0.00105882   -0.00042259   -0.00083109
     atom    2 type  2   force =    -0.00110233   -0.00005001   -0.00009418
     atom    3 type  2   force =     0.00004350    0.00047259    0.00092528

     Total force =     0.002073     Total SCF correction =     0.000064
     Energy error            =      1.2E-05 Ry
     Gradient error          =      1.1E-03 Ry/Bohr

     number of scf cycles    =   3
     number of bfgs steps    =   2

     energy             old  =     -44.0379438951 Ry
     energy             new  =     -44.0379560350 Ry

     CASE: energy            _new < energy            _old

     new trust radius        =       0.0022826410 bohr
     new conv_thr            =       0.0000000100 Ry


ATOMIC_POSITIONS (angstrom)
O             0.9241717926        0.9364278707        1.0267487178
H             0.6421348945        0.5207098310        0.1956280295
H             1.8938933129        0.9167622983        0.9875232527



     Writing config-only to output data dir ./pwscf.save/
     NEW-OLD atomic charge density approx. for the potential

     negative rho (up, down):  1.591E-02 0.000E+00

     total cpu time spent up to now is       43.6 secs

     per-process dynamical memory:    51.2 Mb

     Self-consistent Calculation

     iteration #  1     ecut=    50.00 Ry     beta= 0.70
     Davidson diagonalization with overlap
     ethr =  1.00E-06,  avg # of iterations =  2.0

     Threshold (ethr) on eigenvalues was too large:
     Diagonalizing with lowered threshold

     Davidson diagonalization with overlap
     ethr =  4.58E-08,  avg # of iterations =  5.0

     negative rho (up, down):  1.591E-02 0.000E+00

     total cpu time spent up to now is       44.8 secs

     total energy              =     -44.03795898 Ry
     estimated scf accuracy    <       0.00000240 Ry

     iteration #  2     ecut=    50.00 Ry     beta= 0.70
     Davidson diagonalization with overlap
     ethr =  3.00E-08,  avg # of iterations =  6.0

     negative rho (up, down):  1.591E-02 0.000E+00

     total cpu time spent up to now is       45.6 secs

     total energy              =     -44.03795991 Ry
     estimated scf accuracy    <       0.00000257 Ry

     iteration #  3     ecut=    50.00 Ry     beta= 0.70
     Davidson diagonalization with overlap
     ethr =  3.00E-08,  avg # of iterations =  2.0

     negative rho (up, down):  1.590E-02 0.000E+00

     total cpu time spent up to now is       46.4 secs

     total energy              =     -44.03795964 Ry
     estimated scf accuracy    <       0.00000067 Ry

     iteration #  4     ecut=    50.00 Ry     beta= 0.70
     Davidson diagonalization with overlap
     ethr =  8.39E-09,  avg # of iterations =  6.0

     negative rho (up, down):  1.590E-02 0.000E+00

     total cpu time spent up to now is       47.3 secs

     total energy              =     -44.03796030 Ry
     estimated scf accuracy    <       0.00000124 Ry

     iteration #  5     ecut=    50.00 Ry     beta= 0.70
     Davidson diagonalization with overlap
     ethr =  8.39E-09,  avg # of iterations =  1.0

     negative rho (up, down):  1.590E-02 0.000E+00

     total cpu time spent up to now is       48.0 secs

     total energy              =     -44.03796013 Ry
     estimated scf accuracy    <       0.00000045 Ry

     iteration #  6     ecut=    50.00 Ry     beta= 0.70
     Davidson diagonalization with overlap
     ethr =  5.61E-09,  avg # of iterations =  3.0

     negative rho (up, down):  1.590E-02 0.000E+00

     total cpu time spent up to now is       48.8 secs

     total energy              =     -44.03796033 Ry
     estimated scf accuracy    <       0.00000002 Ry

     iteration #  7     ecut=    50.00 Ry     beta= 0.70
     Davidson diagonalization with overlap
     ethr =  2.65E-10,  avg # of iterations =  5.0

     negative rho (up, down):  1.590E-02 0.000E+00

     total cpu time spent up to now is       49.6 secs

     total energy              =     -44.03796036 Ry
     estimated scf accuracy    <       0.00000002 Ry

     iteration #  8     ecut=    50.00 Ry     beta= 0.70
     Davidson diagonalization with overlap
     ethr =  2.00E-10,  avg # of iterations =  1.0

     negative rho (up, down):  1.590E-02 0.000E+00

     total cpu time spent up to now is       50.4 secs

     total energy              =     -44.03796036 Ry
     estimated scf accuracy    <       0.00000002 Ry

     iteration #  9     ecut=    50.00 Ry     beta= 0.70
     Davidson diagonalization with overlap
     ethr =  2.00E-10,  avg # of iterations =  1.0

     negative rho (up, down):  1.590E-02 0.000E+00

     total cpu time spent up to now is       51.1 secs

     total energy              =     -44.03796036 Ry
     estimated scf accuracy    <       0.00000002 Ry

     iteration # 10     ecut=    50.00 Ry     beta= 0.70
     Davidson diagonalization with overlap
     ethr =  2.00E-10,  avg # of iterations =  1.0

     negative rho (up, down):  1.590E-02 0.000E+00

     total cpu time spent up to now is       51.9 secs

     total energy              =     -44.03796035 Ry
     estimated scf accuracy    <       0.00000002 Ry

     iteration # 11     ecut=    50.00 Ry     beta= 0.70
     Davidson diagonalization with overlap
     ethr =  2.00E-10,  avg # of iterations =  1.0

     negative rho (up, down):  1.590E-02 0.000E+00

     total cpu time spent up to now is       52.7 secs

     total energy              =     -44.03796035 Ry
     estimated scf accuracy    <       0.00000001 Ry

     iteration # 12     ecut=    50.00 Ry     beta= 0.70
     Davidson diagonalization with overlap
     ethr =  1.55E-10,  avg # of iterations =  1.0

     negative rho (up, down):  1.590E-02 0.000E+00

     total cpu time spent up to now is       53.5 secs

     total energy              =     -44.03796035 Ry
     estimated scf accuracy    <       0.00000001 Ry

     iteration # 13     ecut=    50.00 Ry     beta= 0.70
     Davidson diagonalization with overlap
     ethr =  1.35E-10,  avg # of iterations =  1.0

     negative rho (up, down):  1.590E-02 0.000E+00

     total cpu time spent up to now is       54.1 secs

     End of self-consistent calculation

          k = 0.0000 0.0000 0.0000 ( 67942 PWs)   bands (ev):

   -25.2572 -13.0394  -9.2687  -7.1887

     highest occupied level (ev):    -7.1887

!    total energy              =     -44.03796035 Ry

     total all-electron energy =      -152.884842 Ry
     estimated scf accuracy    <          9.8E-09 Ry

     The total energy is the sum of the following terms:
     one-electron contribution =     -69.26061459 Ry
     hartree contribution      =      36.28812450 Ry
     xc contribution           =      -8.85195019 Ry
     ewald contribution        =       7.37363833 Ry
     one-center paw contrib.   =      -9.58715840 Ry

     convergence has been achieved in  13 iterations

     negative rho (up, down):  1.590E-02 0.000E+00

     Forces acting on atoms (cartesian axes, Ry/au):

     atom    1 type  1   force =    -0.00069162   -0.00007779   -0.00016147
     atom    2 type  2   force =    -0.00049159   -0.00009211   -0.00016739
     atom    3 type  2   force =     0.00118320    0.00016990    0.00032887

     Total force =     0.001525     Total SCF correction =     0.000110
     Energy error            =      4.3E-06 Ry
     Gradient error          =      1.2E-03 Ry/Bohr

     number of scf cycles    =   4
     number of bfgs steps    =   3

     energy             old  =     -44.0379560350 Ry
     energy             new  =     -44.0379603468 Ry

     CASE: energy            _new < energy            _old

     new trust radius        =       0.0019674429 bohr
     new conv_thr            =       0.0000000100 Ry


ATOMIC_POSITIONS (angstrom)
O             0.9242104056        0.9361038386        1.0261204507
H             0.6413561051        0.5206923851        0.1956086279
H             1.8946334893        0.9171037763        0.9881709214



     Writing config-only to output data dir ./pwscf.save/
     NEW-OLD atomic charge density approx. for the potential

     negative rho (up, down):  1.590E-02 0.000E+00

     total cpu time spent up to now is       55.8 secs

     per-process dynamical memory:    51.2 Mb

     Self-consistent Calculation

     iteration #  1     ecut=    50.00 Ry     beta= 0.70
     Davidson diagonalization with overlap
     ethr =  1.00E-06,  avg # of iterations =  2.0

     Threshold (ethr) on eigenvalues was too large:
     Diagonalizing with lowered threshold

     Davidson diagonalization with overlap
     ethr =  1.19E-08,  avg # of iterations =  6.0

     negative rho (up, down):  1.591E-02 0.000E+00

     total cpu time spent up to now is       57.0 secs

     total energy              =     -44.03796106 Ry
     estimated scf accuracy    <       0.00000050 Ry

     iteration #  2     ecut=    50.00 Ry     beta= 0.70
     Davidson diagonalization with overlap
     ethr =  6.27E-09,  avg # of iterations =  5.0

     negative rho (up, down):  1.590E-02 0.000E+00

     total cpu time spent up to now is       57.9 secs

     total energy              =     -44.03796122 Ry
     estimated scf accuracy    <       0.00000017 Ry

     iteration #  3     ecut=    50.00 Ry     beta= 0.70
     Davidson diagonalization with overlap
     ethr =  2.12E-09,  avg # of iterations =  4.0

     negative rho (up, down):  1.590E-02 0.000E+00

     total cpu time spent up to now is       58.7 secs

     total energy              =     -44.03796123 Ry
     estimated scf accuracy    <       0.00000005 Ry

     iteration #  4     ecut=    50.00 Ry     beta= 0.70
     Davidson diagonalization with overlap
     ethr =  6.06E-10,  avg # of iterations =  5.0

     negative rho (up, down):  1.590E-02 0.000E+00

     total cpu time spent up to now is       59.6 secs

     total energy              =     -44.03796126 Ry
     estimated scf accuracy    <       0.00000003 Ry

     iteration #  5     ecut=    50.00 Ry     beta= 0.70
     Davidson diagonalization with overlap
     ethr =  3.72E-10,  avg # of iterations =  2.0

     negative rho (up, down):  1.590E-02 0.000E+00

     total cpu time spent up to now is       60.3 secs

     End of self-consistent calculation

          k = 0.0000 0.0000 0.0000 ( 67942 PWs)   bands (ev):

   -25.2537 -13.0456  -9.2618  -7.1882

     highest occupied level (ev):    -7.1882

!    total energy              =     -44.03796127 Ry

     total all-electron energy =      -152.884843 Ry
     estimated scf accuracy    <          4.2E-09 Ry

     The total energy is the sum of the following terms:
     one-electron contribution =     -69.25801536 Ry
     hartree contribution      =      36.28771570 Ry
     xc contribution           =      -8.85190297 Ry
     ewald contribution        =       7.37139131 Ry
     one-center paw contrib.   =      -9.58714995 Ry

     convergence has been achieved in   5 iterations

     negative rho (up, down):  1.590E-02 0.000E+00

     Forces acting on atoms (cartesian axes, Ry/au):

     atom    1 type  1   force =     0.00049629    0.00040063    0.00081573
     atom    2 type  2   force =    -0.00025403   -0.00041047   -0.00081794
     atom    3 type  2   force =    -0.00024227    0.00000984    0.00000221

     Total force =     0.001426     Total SCF correction =     0.000072
     Energy error            =      9.2E-07 Ry
     Gradient error          =      8.2E-04 Ry/Bohr

     bfgs converged in   5 scf cycles and   4 bfgs steps
     (criteria: energy <  1.0E-04 Ry, force <  1.0E-03 Ry/Bohr)

     End of BFGS Geometry Optimization

     Final energy             =     -44.0379612663 Ry

     File ./pwscf.bfgs deleted, as requested
Begin final coordinates

ATOMIC_POSITIONS (angstrom)
O             0.9242104056        0.9361038386        1.0261204507
H             0.6413561051        0.5206923851        0.1956086279
H             1.8946334893        0.9171037763        0.9881709214
End final coordinates



     Writing all to output data dir ./pwscf.save/

     init_run     :      1.05s CPU      1.13s WALL (       1 calls)
     electrons    :     48.77s CPU     53.35s WALL (       5 calls)
     update_pot   :      2.41s CPU      2.49s WALL (       4 calls)
     forces       :      3.19s CPU      3.43s WALL (       5 calls)

     Called by init_run:
     wfcinit      :      0.06s CPU      0.07s WALL (       1 calls)
     potinit      :      0.38s CPU      0.41s WALL (       1 calls)
     hinit0       :      0.38s CPU      0.39s WALL (       1 calls)

     Called by electrons:
     c_bands      :     10.00s CPU     10.07s WALL (      67 calls)
     sum_band     :     10.93s CPU     12.34s WALL (      67 calls)
     v_of_rho     :     16.14s CPU     17.00s WALL (      69 calls)
     newd         :      6.20s CPU      7.72s WALL (      69 calls)
     PAW_pot      :      1.43s CPU      1.44s WALL (      73 calls)
     mix_rho      :      4.74s CPU      4.87s WALL (      67 calls)

     Called by c_bands:
     init_us_2    :      0.23s CPU      0.24s WALL (     139 calls)
     init_us_2:cp :      0.23s CPU      0.24s WALL (     139 calls)
     regterg      :      9.77s CPU      9.83s WALL (      67 calls)

     Called by *egterg:
     rdiaghg      :      0.01s CPU      0.01s WALL (     263 calls)
     h_psi        :      8.95s CPU      8.99s WALL (     271 calls)
     s_psi        :      0.12s CPU      0.12s WALL (     271 calls)
     g_psi        :      0.03s CPU      0.03s WALL (     203 calls)

     Called by h_psi:
     h_psi:calbec :      0.41s CPU      0.41s WALL (     271 calls)
     vloc_psi     :      8.36s CPU      8.40s WALL (     271 calls)
     add_vuspsi   :      0.14s CPU      0.14s WALL (     271 calls)

     General routines
     calbec       :      0.60s CPU      0.60s WALL (     362 calls)
     fft          :     14.24s CPU     14.47s WALL (     673 calls)
     ffts         :      1.43s CPU      1.44s WALL (      67 calls)
     fftw         :      7.66s CPU      7.69s WALL (    1050 calls)

     Parallel routines

     PWSCF        :     56.12s CPU   1m 1.49s WALL


   This run was terminated on:   5:50:23  28Mar2022            

=------------------------------------------------------------------------------=
   JOB DONE.
=------------------------------------------------------------------------------=
